 +-------------------------------------------------+
 |                                                 |
 |      CCC   AA    SSS  TTTTT  EEEEE  PPPP        |
 |     C     A  A  S       T    E      P   P       |
 |     C     AAAA   SS     T    EEE    PPPP        |
 |     C     A  A     S    T    E      P           |
 |      CCC  A  A  SSS     T    EEEEE  P           |
 |                                                 |
 +-------------------------------------------------+
 |                                                 |
 | Welcome to Academic Release CASTEP version 7.03 |
 | Ab Initio Total Energy Program                  |
 |                                                 |
 | Authors:                                        |
 | M. Segall, M. Probert, C. Pickard, P. Hasnip,   |
 | S. Clark, K. Refson, J. R. Yates, M. Payne      |
 |                                                 |
 | Contributors:                                   |
 | P. Lindan, P. Haynes, J. White, V. Milman,      |
 | N. Govind, M. Gibson, P. Tulip, V. Cocula,      |
 | B. Montanari, D. Quigley, M. Glover,            |
 | L. Bernasconi, A. Perlov, M. Plummer,           |
 | E. McNellis, J. Meyer, J. Gale, D. Jochym       |
 | J. Aarons, B. Walker, R. Gillen, D. Jones       |
 |                                                 |
 | Copyright (c) 2000 - 2013                       |
 |                                                 |
 |     Distributed under the terms of an           |
 |     Agreement between the United Kingdom        |
 |     Car-Parrinello (UKCP) Consortium,           |
 |     Daresbury Laboratory and Accelrys, Inc.     |
 |                                                 |
 | Please cite                                     |
 |                                                 |
 |     "First principles methods using CASTEP"     |
 |                                                 |
 |         Zeitschrift fuer Kristallographie       |
 |           220(5-6) pp. 567-570 (2005)           |
 |                                                 |
 | S. J. Clark, M. D. Segall, C. J. Pickard,       |
 | P. J. Hasnip, M. J. Probert, K. Refson,         |
 | M. C. Payne                                     |
 |                                                 |
 |       in all publications arising from          |
 |              your use of CASTEP                 |
 |                                                 |
 +-------------------------------------------------+
 
 
 Compiled for linux_x86_64_ifort14 on Thu, 05 Jun 2014 15:42:27 +0100
 from code version 824badb45ac0+ Castep70_branch Thu, 05 Jun 2014 11:49:23 +0100
 Compiler: Intel Fortran 14.0.1.106; Optimisation: fast
 MATHLIBS: Intel MKL(11.1.2) (LAPACK version 3.4.1)
 FFT Lib : default
 
 Run started: Thu, 14 Jan 2016 09:59:50 +0000
 Warning: parameters_read - missing parameters file, using defaults
 
 Atomic calculation performed for C: 1s2 2s2 2p2
 
 Converged in 56 iterations to an ae energy of -1018.807 eV
 
 Identity difference: 4.30E-04
 
   ============================================================                
   | Pseudopotential Report - Date of generation 14-01-2016   |                
   ------------------------------------------------------------                
   | Element: C Ionic charge:  4.00 Level of theory: LDA      |                
   |                                                          |                
   |               Reference Electronic Structure             |                
   |         Orbital         Occupation         Energy        |                
   |            2s              2.000           -0.501        |                
   |            2p              2.000           -0.199        |                
   |                                                          |                
   |                 Pseudopotential Definition               |                
   |        Beta     l      e      Rc     scheme   norm       |                
   |          1      0   -0.501   1.395     qc      0         |                
   |          2      0    0.250   1.395     qc      0         |                
   |          3      1   -0.199   1.395     qc      0         |                
   |          4      1    0.250   1.395     qc      0         |                
   |         loc     2    0.000   1.395     pn      0         |                
   |                                                          |                
   | Augmentation charge Rinner = 1.305                       |                
   | Partial core correction Rc = 1.305                       |                
   ------------------------------------------------------------                
   | "2|1.4|1.4|1.3|6|10|12|20:21(qc=6)[]"                    |                
   ------------------------------------------------------------                
   |      Author: Chris J. Pickard, Cambridge University      |                
   ============================================================                
 
 Doing a self consistent calculation for the test configuration
 
 Atomic calculation performed for C: 1s2 2s2 2p2
 
 Converged in 56 iterations to an ae energy of -1018.807 eV
 
 ---------------------------------------
 AE eigenvalue nl 10 =       -9.95226116
 AE eigenvalue nl 20 =       -0.50140334
 AE eigenvalue nl 21 =       -0.19918477
 ---------------------------------------
 PS eigenvalue nl 20 =       -0.50139111
 PS eigenvalue nl 21 =       -0.19916613
 ---------------------------------------
 Maximum eigenvalue error:   1.86E-05
 
 Derived cutoff energies: C=   4 M=   8 F=  10 E=  14
 
 
 ***************************************
 
 Pseudo atomic calculation performed for C 2s2 2p2
 
 Converged in 15 iterations to a total energy of -145.8653 eV
 
 Calculation not parallelised.
 Warning: parameters_output - missing parameters file, using defaults

 ************************************ Title ************************************
 

 ***************************** General Parameters ******************************
  
 output verbosity                               : normal  (1)
 write checkpoint data to                       : C_dummy.check
 type of calculation                            : single point energy
 stress calculation                             : off
 density difference calculation                 : off
 electron localisation func (ELF) calculation   : off
 Hirshfeld analysis                             : off
 unlimited duration calculation
 timing information                             : on
 memory usage estimate                          : on
 write final potential to formatted file        : off
 write final density to formatted file          : off
 write BibTeX reference list                    : on

 *********************** Exchange-Correlation Parameters ***********************
  
 using functional                               : Local Density Approximation
 Divergence correction                          : off
 DFT+D: Semi-empirical dispersion correction    : off

 ************************* Pseudopotential Parameters **************************
  
 pseudopotential representation                 : reciprocal space
 <beta|phi> representation                      : reciprocal space

 **************************** Basis Set Parameters *****************************
  
 basis set accuracy                             : FINE
 finite basis set correction                    : none

 **************************** Electronic Parameters ****************************
  
 number of  electrons                           :  4.000    
 net charge of system                           :  0.000    
 net spin   of system                           :  0.000    
 number of  up  spins                           :  2.000    
 number of down spins                           :  2.000    
 treating system as non-spin-polarized
 number of bands                                :          6

 ********************* Electronic Minimization Parameters **********************
  
 Method: Treating system as metallic with density mixing treatment of electrons,
         and number of  SD  steps               :          1
         and number of  CG  steps               :          4
  
 total energy / atom convergence tol.           : 0.1000E-04   eV
 eigen-energy convergence tolerance             : 0.1000E-05   eV
 max force / atom convergence tol.              : ignored
 periodic dipole correction                     : NONE

 ************************** Density Mixing Parameters **************************
  
 density-mixing scheme                          : Broyden
 max. length of mixing history                  :         20

 *********************** Population Analysis Parameters ************************
  
 Population analysis with cutoff                :  3.000       A

 *******************************************************************************
  
 
                           -------------------------------
                                      Unit Cell
                           -------------------------------
        Real Lattice(A)                      Reciprocal Lattice(1/A)
   1.0000000   0.0000000   0.0000000        6.2831853  -0.0000000  -0.0000000
   0.0000000   1.0000000   0.0000000        0.0000000   6.2831853  -0.0000000
   0.0000000   0.0000000   1.0000000        0.0000000   0.0000000   6.2831853
 
                       Lattice parameters(A)       Cell Angles
                    a =    1.000000          alpha =   90.000000
                    b =    1.000000          beta  =   90.000000
                    c =    1.000000          gamma =   90.000000
 
                       Current cell volume =    1.000000       A**3
 
                           -------------------------------
                                     Cell Contents
                           -------------------------------
                         Total number of ions in cell =    1
                      Total number of species in cell =    1
                        Max number of any one species =    1
 
            xxxxxxxxxxxxxxxxxxxxxxxxxxxxxxxxxxxxxxxxxxxxxxxxxxxxxxxxxxxx
            x  Element    Atom        Fractional coordinates of atoms  x
            x            Number           u          v          w      x
            x----------------------------------------------------------x
            x  C            1         0.000000   0.000000   0.000000   x 
            xxxxxxxxxxxxxxxxxxxxxxxxxxxxxxxxxxxxxxxxxxxxxxxxxxxxxxxxxxxx
 
 
                         No user defined ionic velocities
 
                           -------------------------------
                                   Details of Species
                           -------------------------------
 
                               Mass of species in AMU
                                    C   12.0107000
 
                          Electric Quadrupole Moment (Barn)
                                    C    0.0332700 Isotope 11
 
                          Files used for pseudopotentials:
                                    C 2|1.4|1.4|1.3|6|10|12|20:21(qc=6)[]
 
                           -------------------------------
                              k-Points For BZ Sampling
                           -------------------------------
                       MP grid size for SCF calculation is 11 11 11
                         Number of kpoints used =         666
 
             +++++++++++++++++++++++++++++++++++++++++++++++++++++++
             +  Number       Fractional coordinates        Weight  +
             +-----------------------------------------------------+
             +     1  -0.454545  -0.454545  -0.454545   0.0015026  +
             +     2  -0.454545  -0.454545  -0.363636   0.0015026  +
             +     3  -0.454545  -0.454545  -0.181818   0.0015026  +
             +     4  -0.454545  -0.454545  -0.090909   0.0015026  +
             +     5  -0.454545  -0.454545   0.000000   0.0015026  +
             +     6  -0.454545  -0.454545   0.090909   0.0015026  +
             +     7  -0.454545  -0.454545   0.454545   0.0015026  +
             +     8  -0.454545  -0.363636  -0.454545   0.0015026  +
             +     9  -0.454545  -0.363636  -0.363636   0.0015026  +
             +    10  -0.454545  -0.363636  -0.272727   0.0015026  +
             +    11  -0.454545  -0.363636   0.000000   0.0015026  +
             +    12  -0.454545  -0.363636   0.090909   0.0015026  +
             +    13  -0.454545  -0.363636   0.181818   0.0015026  +
             +    14  -0.454545  -0.363636   0.272727   0.0015026  +
             +    15  -0.454545  -0.363636   0.454545   0.0015026  +
             +    16  -0.454545  -0.272727  -0.454545   0.0015026  +
             +    17  -0.454545  -0.272727  -0.272727   0.0015026  +
             +    18  -0.454545  -0.272727  -0.181818   0.0015026  +
             +    19  -0.454545  -0.272727   0.181818   0.0015026  +
             +    20  -0.454545  -0.272727   0.272727   0.0015026  +
             +    21  -0.454545  -0.272727   0.363636   0.0015026  +
             +    22  -0.454545  -0.272727   0.454545   0.0015026  +
             +    23  -0.454545  -0.181818  -0.272727   0.0015026  +
             +    24  -0.454545  -0.181818  -0.181818   0.0015026  +
             +    25  -0.454545  -0.181818  -0.090909   0.0015026  +
             +    26  -0.454545  -0.181818   0.090909   0.0015026  +
             +    27  -0.454545  -0.090909  -0.363636   0.0015026  +
             +    28  -0.454545  -0.090909  -0.272727   0.0015026  +
             +    29  -0.454545  -0.090909   0.363636   0.0015026  +
             +    30  -0.454545   0.000000  -0.454545   0.0015026  +
             +    31  -0.454545   0.000000   0.272727   0.0015026  +
             +    32  -0.454545   0.000000   0.454545   0.0015026  +
             +    33  -0.454545   0.090909  -0.454545   0.0015026  +
             +    34  -0.454545   0.090909  -0.363636   0.0015026  +
             +    35  -0.454545   0.090909  -0.272727   0.0015026  +
             +    36  -0.454545   0.090909  -0.181818   0.0015026  +
             +    37  -0.454545   0.090909  -0.090909   0.0015026  +
             +    38  -0.454545   0.090909   0.000000   0.0015026  +
             +    39  -0.454545   0.090909   0.181818   0.0015026  +
             +    40  -0.454545   0.090909   0.272727   0.0015026  +
             +    41  -0.454545   0.090909   0.363636   0.0015026  +
             +    42  -0.454545   0.181818  -0.181818   0.0015026  +
             +    43  -0.454545   0.181818  -0.090909   0.0015026  +
             +    44  -0.454545   0.181818   0.272727   0.0015026  +
             +    45  -0.454545   0.181818   0.363636   0.0015026  +
             +    46  -0.454545   0.181818   0.454545   0.0015026  +
             +    47  -0.454545   0.272727  -0.363636   0.0015026  +
             +    48  -0.454545   0.272727  -0.272727   0.0015026  +
             +    49  -0.454545   0.272727  -0.181818   0.0015026  +
             +    50  -0.454545   0.272727   0.272727   0.0015026  +
             +    51  -0.454545   0.272727   0.454545   0.0015026  +
             +    52  -0.454545   0.363636   0.000000   0.0015026  +
             +    53  -0.454545   0.363636   0.454545   0.0015026  +
             +    54  -0.454545   0.454545  -0.454545   0.0015026  +
             +    55  -0.454545   0.454545  -0.363636   0.0015026  +
             +    56  -0.454545   0.454545  -0.272727   0.0015026  +
             +    57  -0.454545   0.454545   0.090909   0.0015026  +
             +    58  -0.454545   0.454545   0.181818   0.0015026  +
             +    59  -0.454545   0.454545   0.363636   0.0015026  +
             +    60  -0.363636  -0.454545  -0.454545   0.0015026  +
             +    61  -0.363636  -0.454545  -0.363636   0.0015026  +
             +    62  -0.363636  -0.454545  -0.181818   0.0015026  +
             +    63  -0.363636  -0.454545  -0.090909   0.0015026  +
             +    64  -0.363636  -0.454545   0.090909   0.0015026  +
             +    65  -0.363636  -0.363636  -0.363636   0.0015026  +
             +    66  -0.363636  -0.363636  -0.181818   0.0015026  +
             +    67  -0.363636  -0.363636  -0.090909   0.0015026  +
             +    68  -0.363636  -0.363636   0.000000   0.0015026  +
             +    69  -0.363636  -0.363636   0.090909   0.0015026  +
             +    70  -0.363636  -0.363636   0.363636   0.0015026  +
             +    71  -0.363636  -0.272727  -0.454545   0.0015026  +
             +    72  -0.363636  -0.272727  -0.090909   0.0015026  +
             +    73  -0.363636  -0.272727   0.363636   0.0015026  +
             +    74  -0.363636  -0.272727   0.454545   0.0015026  +
             +    75  -0.363636  -0.181818   0.363636   0.0015026  +
             +    76  -0.363636  -0.090909  -0.454545   0.0015026  +
             +    77  -0.363636  -0.090909  -0.363636   0.0015026  +
             +    78  -0.363636  -0.090909  -0.181818   0.0015026  +
             +    79  -0.363636  -0.090909   0.454545   0.0015026  +
             +    80  -0.363636   0.000000  -0.454545   0.0015026  +
             +    81  -0.363636   0.000000  -0.363636   0.0015026  +
             +    82  -0.363636   0.000000   0.454545   0.0015026  +
             +    83  -0.363636   0.090909   0.272727   0.0015026  +
             +    84  -0.363636   0.181818  -0.454545   0.0015026  +
             +    85  -0.363636   0.181818  -0.272727   0.0015026  +
             +    86  -0.363636   0.181818   0.363636   0.0015026  +
             +    87  -0.363636   0.181818   0.454545   0.0015026  +
             +    88  -0.363636   0.272727  -0.454545   0.0015026  +
             +    89  -0.363636   0.363636  -0.272727   0.0015026  +
             +    90  -0.363636   0.363636   0.363636   0.0015026  +
             +    91  -0.363636   0.454545  -0.181818   0.0015026  +
             +    92  -0.363636   0.454545  -0.090909   0.0015026  +
             +    93  -0.363636   0.454545   0.363636   0.0015026  +
             +    94  -0.363636   0.454545   0.454545   0.0015026  +
             +    95  -0.272727  -0.454545  -0.454545   0.0015026  +
             +    96  -0.272727  -0.454545  -0.363636   0.0015026  +
             +    97  -0.272727  -0.454545  -0.272727   0.0015026  +
             +    98  -0.272727  -0.454545  -0.181818   0.0015026  +
             +    99  -0.272727  -0.454545  -0.090909   0.0015026  +
             +   100  -0.272727  -0.454545   0.181818   0.0015026  +
             +   101  -0.272727  -0.454545   0.363636   0.0015026  +
             +   102  -0.272727  -0.363636  -0.363636   0.0015026  +
             +   103  -0.272727  -0.363636   0.000000   0.0015026  +
             +   104  -0.272727  -0.363636   0.090909   0.0015026  +
             +   105  -0.272727  -0.363636   0.272727   0.0015026  +
             +   106  -0.272727  -0.363636   0.454545   0.0015026  +
             +   107  -0.272727  -0.272727  -0.454545   0.0015026  +
             +   108  -0.272727  -0.272727  -0.363636   0.0015026  +
             +   109  -0.272727  -0.272727   0.363636   0.0015026  +
             +   110  -0.272727  -0.272727   0.454545   0.0015026  +
             +   111  -0.272727  -0.181818   0.454545   0.0015026  +
             +   112  -0.272727  -0.090909   0.363636   0.0015026  +
             +   113  -0.272727  -0.090909   0.454545   0.0015026  +
             +   114  -0.272727   0.000000   0.454545   0.0015026  +
             +   115  -0.272727   0.090909  -0.363636   0.0015026  +
             +   116  -0.272727   0.090909  -0.272727   0.0015026  +
             +   117  -0.272727   0.090909  -0.181818   0.0015026  +
             +   118  -0.272727   0.090909  -0.090909   0.0015026  +
             +   119  -0.272727   0.090909   0.000000   0.0015026  +
             +   120  -0.272727   0.090909   0.090909   0.0015026  +
             +   121  -0.272727   0.090909   0.181818   0.0015026  +
             +   122  -0.272727   0.090909   0.272727   0.0015026  +
             +   123  -0.272727   0.090909   0.363636   0.0015026  +
             +   124  -0.272727   0.090909   0.454545   0.0015026  +
             +   125  -0.272727   0.181818  -0.363636   0.0015026  +
             +   126  -0.272727   0.181818  -0.272727   0.0015026  +
             +   127  -0.272727   0.181818  -0.181818   0.0015026  +
             +   128  -0.272727   0.181818  -0.090909   0.0015026  +
             +   129  -0.272727   0.181818   0.000000   0.0015026  +
             +   130  -0.272727   0.181818   0.090909   0.0015026  +
             +   131  -0.272727   0.181818   0.181818   0.0015026  +
             +   132  -0.272727   0.181818   0.272727   0.0015026  +
             +   133  -0.272727   0.181818   0.363636   0.0015026  +
             +   134  -0.272727   0.272727  -0.454545   0.0015026  +
             +   135  -0.272727   0.272727  -0.363636   0.0015026  +
             +   136  -0.272727   0.272727  -0.272727   0.0015026  +
             +   137  -0.272727   0.272727  -0.181818   0.0015026  +
             +   138  -0.272727   0.272727  -0.090909   0.0015026  +
             +   139  -0.272727   0.272727   0.000000   0.0015026  +
             +   140  -0.272727   0.272727   0.090909   0.0015026  +
             +   141  -0.272727   0.272727   0.181818   0.0015026  +
             +   142  -0.272727   0.272727   0.272727   0.0015026  +
             +   143  -0.272727   0.272727   0.363636   0.0015026  +
             +   144  -0.272727   0.272727   0.454545   0.0015026  +
             +   145  -0.272727   0.363636  -0.272727   0.0015026  +
             +   146  -0.272727   0.363636  -0.181818   0.0015026  +
             +   147  -0.272727   0.363636  -0.090909   0.0015026  +
             +   148  -0.272727   0.363636   0.000000   0.0015026  +
             +   149  -0.272727   0.363636   0.090909   0.0015026  +
             +   150  -0.272727   0.363636   0.181818   0.0015026  +
             +   151  -0.272727   0.363636   0.363636   0.0015026  +
             +   152  -0.272727   0.454545  -0.454545   0.0015026  +
             +   153  -0.272727   0.454545  -0.363636   0.0015026  +
             +   154  -0.272727   0.454545  -0.090909   0.0015026  +
             +   155  -0.272727   0.454545   0.000000   0.0015026  +
             +   156  -0.272727   0.454545   0.090909   0.0015026  +
             +   157  -0.272727   0.454545   0.181818   0.0015026  +
             +   158  -0.272727   0.454545   0.272727   0.0015026  +
             +   159  -0.181818  -0.454545  -0.363636   0.0015026  +
             +   160  -0.181818  -0.454545  -0.272727   0.0015026  +
             +   161  -0.181818  -0.454545  -0.181818   0.0015026  +
             +   162  -0.181818  -0.454545  -0.090909   0.0015026  +
             +   163  -0.181818  -0.454545   0.000000   0.0015026  +
             +   164  -0.181818  -0.454545   0.090909   0.0015026  +
             +   165  -0.181818  -0.454545   0.181818   0.0015026  +
             +   166  -0.181818  -0.454545   0.272727   0.0015026  +
             +   167  -0.181818  -0.454545   0.363636   0.0015026  +
             +   168  -0.181818  -0.363636  -0.363636   0.0015026  +
             +   169  -0.181818  -0.363636  -0.272727   0.0015026  +
             +   170  -0.181818  -0.363636  -0.181818   0.0015026  +
             +   171  -0.181818  -0.363636  -0.090909   0.0015026  +
             +   172  -0.181818  -0.363636   0.000000   0.0015026  +
             +   173  -0.181818  -0.363636   0.090909   0.0015026  +
             +   174  -0.181818  -0.363636   0.181818   0.0015026  +
             +   175  -0.181818  -0.363636   0.272727   0.0015026  +
             +   176  -0.181818  -0.272727  -0.454545   0.0015026  +
             +   177  -0.181818  -0.272727  -0.363636   0.0015026  +
             +   178  -0.181818  -0.272727  -0.272727   0.0015026  +
             +   179  -0.181818  -0.272727  -0.181818   0.0015026  +
             +   180  -0.181818  -0.272727  -0.090909   0.0015026  +
             +   181  -0.181818  -0.272727   0.000000   0.0015026  +
             +   182  -0.181818  -0.272727   0.090909   0.0015026  +
             +   183  -0.181818  -0.272727   0.181818   0.0015026  +
             +   184  -0.181818  -0.272727   0.272727   0.0015026  +
             +   185  -0.181818  -0.272727   0.363636   0.0015026  +
             +   186  -0.181818  -0.181818  -0.454545   0.0015026  +
             +   187  -0.181818  -0.181818  -0.363636   0.0015026  +
             +   188  -0.181818  -0.181818  -0.272727   0.0015026  +
             +   189  -0.181818  -0.181818  -0.181818   0.0015026  +
             +   190  -0.181818  -0.181818  -0.090909   0.0015026  +
             +   191  -0.181818  -0.181818   0.000000   0.0015026  +
             +   192  -0.181818  -0.181818   0.090909   0.0015026  +
             +   193  -0.181818  -0.181818   0.181818   0.0015026  +
             +   194  -0.181818  -0.181818   0.272727   0.0015026  +
             +   195  -0.181818  -0.181818   0.363636   0.0015026  +
             +   196  -0.181818  -0.181818   0.454545   0.0015026  +
             +   197  -0.181818  -0.090909  -0.454545   0.0015026  +
             +   198  -0.181818  -0.090909  -0.363636   0.0015026  +
             +   199  -0.181818  -0.090909  -0.272727   0.0015026  +
             +   200  -0.181818  -0.090909  -0.181818   0.0015026  +
             +   201  -0.181818  -0.090909  -0.090909   0.0015026  +
             +   202  -0.181818  -0.090909   0.000000   0.0015026  +
             +   203  -0.181818  -0.090909   0.090909   0.0015026  +
             +   204  -0.181818  -0.090909   0.181818   0.0015026  +
             +   205  -0.181818  -0.090909   0.272727   0.0015026  +
             +   206  -0.181818  -0.090909   0.363636   0.0015026  +
             +   207  -0.181818  -0.090909   0.454545   0.0015026  +
             +   208  -0.181818   0.000000  -0.454545   0.0015026  +
             +   209  -0.181818   0.000000  -0.363636   0.0015026  +
             +   210  -0.181818   0.000000  -0.272727   0.0015026  +
             +   211  -0.181818   0.000000  -0.181818   0.0015026  +
             +   212  -0.181818   0.000000  -0.090909   0.0015026  +
             +   213  -0.181818   0.000000   0.000000   0.0015026  +
             +   214  -0.181818   0.000000   0.090909   0.0015026  +
             +   215  -0.181818   0.000000   0.181818   0.0015026  +
             +   216  -0.181818   0.000000   0.272727   0.0015026  +
             +   217  -0.181818   0.000000   0.363636   0.0015026  +
             +   218  -0.181818   0.000000   0.454545   0.0015026  +
             +   219  -0.181818   0.090909  -0.454545   0.0015026  +
             +   220  -0.181818   0.090909  -0.363636   0.0015026  +
             +   221  -0.181818   0.090909  -0.272727   0.0015026  +
             +   222  -0.181818   0.090909  -0.181818   0.0015026  +
             +   223  -0.181818   0.090909  -0.090909   0.0015026  +
             +   224  -0.181818   0.090909   0.000000   0.0015026  +
             +   225  -0.181818   0.090909   0.090909   0.0015026  +
             +   226  -0.181818   0.090909   0.181818   0.0015026  +
             +   227  -0.181818   0.090909   0.272727   0.0015026  +
             +   228  -0.181818   0.090909   0.363636   0.0015026  +
             +   229  -0.181818   0.090909   0.454545   0.0015026  +
             +   230  -0.181818   0.181818  -0.454545   0.0015026  +
             +   231  -0.181818   0.181818  -0.363636   0.0015026  +
             +   232  -0.181818   0.181818  -0.272727   0.0015026  +
             +   233  -0.181818   0.181818  -0.181818   0.0015026  +
             +   234  -0.181818   0.363636  -0.454545   0.0015026  +
             +   235  -0.181818   0.363636  -0.363636   0.0015026  +
             +   236  -0.181818   0.363636   0.363636   0.0015026  +
             +   237  -0.181818   0.363636   0.454545   0.0015026  +
             +   238  -0.181818   0.454545   0.181818   0.0015026  +
             +   239  -0.181818   0.454545   0.272727   0.0015026  +
             +   240  -0.181818   0.454545   0.363636   0.0015026  +
             +   241  -0.181818   0.454545   0.454545   0.0015026  +
             +   242  -0.090909  -0.454545   0.272727   0.0015026  +
             +   243  -0.090909  -0.363636  -0.454545   0.0015026  +
             +   244  -0.090909  -0.363636   0.363636   0.0015026  +
             +   245  -0.090909  -0.363636   0.454545   0.0015026  +
             +   246  -0.090909  -0.272727   0.000000   0.0015026  +
             +   247  -0.090909  -0.272727   0.090909   0.0015026  +
             +   248  -0.090909  -0.272727   0.181818   0.0015026  +
             +   249  -0.090909  -0.272727   0.272727   0.0015026  +
             +   250  -0.090909  -0.181818  -0.363636   0.0015026  +
             +   251  -0.090909  -0.181818  -0.272727   0.0015026  +
             +   252  -0.090909  -0.181818  -0.181818   0.0015026  +
             +   253  -0.090909  -0.181818  -0.090909   0.0015026  +
             +   254  -0.090909  -0.181818   0.000000   0.0015026  +
             +   255  -0.090909  -0.181818   0.090909   0.0015026  +
             +   256  -0.090909  -0.181818   0.181818   0.0015026  +
             +   257  -0.090909  -0.181818   0.272727   0.0015026  +
             +   258  -0.090909  -0.181818   0.363636   0.0015026  +
             +   259  -0.090909  -0.181818   0.454545   0.0015026  +
             +   260  -0.090909  -0.090909  -0.454545   0.0015026  +
             +   261  -0.090909  -0.090909  -0.363636   0.0015026  +
             +   262  -0.090909  -0.090909  -0.272727   0.0015026  +
             +   263  -0.090909  -0.090909  -0.181818   0.0015026  +
             +   264  -0.090909  -0.090909  -0.090909   0.0015026  +
             +   265  -0.090909  -0.090909   0.000000   0.0015026  +
             +   266  -0.090909  -0.090909   0.090909   0.0015026  +
             +   267  -0.090909  -0.090909   0.181818   0.0015026  +
             +   268  -0.090909  -0.090909   0.272727   0.0015026  +
             +   269  -0.090909  -0.090909   0.363636   0.0015026  +
             +   270  -0.090909  -0.090909   0.454545   0.0015026  +
             +   271  -0.090909   0.000000  -0.454545   0.0015026  +
             +   272  -0.090909   0.000000  -0.363636   0.0015026  +
             +   273  -0.090909   0.000000  -0.272727   0.0015026  +
             +   274  -0.090909   0.000000  -0.181818   0.0015026  +
             +   275  -0.090909   0.000000  -0.090909   0.0015026  +
             +   276  -0.090909   0.000000   0.000000   0.0015026  +
             +   277  -0.090909   0.000000   0.090909   0.0015026  +
             +   278  -0.090909   0.000000   0.181818   0.0015026  +
             +   279  -0.090909   0.000000   0.272727   0.0015026  +
             +   280  -0.090909   0.000000   0.363636   0.0015026  +
             +   281  -0.090909   0.000000   0.454545   0.0015026  +
             +   282  -0.090909   0.090909  -0.454545   0.0015026  +
             +   283  -0.090909   0.090909  -0.363636   0.0015026  +
             +   284  -0.090909   0.090909  -0.272727   0.0015026  +
             +   285  -0.090909   0.090909  -0.181818   0.0015026  +
             +   286  -0.090909   0.090909  -0.090909   0.0015026  +
             +   287  -0.090909   0.090909   0.000000   0.0015026  +
             +   288  -0.090909   0.090909   0.090909   0.0015026  +
             +   289  -0.090909   0.090909   0.181818   0.0015026  +
             +   290  -0.090909   0.090909   0.272727   0.0015026  +
             +   291  -0.090909   0.090909   0.363636   0.0015026  +
             +   292  -0.090909   0.090909   0.454545   0.0015026  +
             +   293  -0.090909   0.181818  -0.454545   0.0015026  +
             +   294  -0.090909   0.181818  -0.363636   0.0015026  +
             +   295  -0.090909   0.181818  -0.272727   0.0015026  +
             +   296  -0.090909   0.181818  -0.181818   0.0015026  +
             +   297  -0.090909   0.181818  -0.090909   0.0015026  +
             +   298  -0.090909   0.181818   0.000000   0.0015026  +
             +   299  -0.090909   0.181818   0.090909   0.0015026  +
             +   300  -0.090909   0.181818   0.181818   0.0015026  +
             +   301  -0.090909   0.181818   0.272727   0.0015026  +
             +   302  -0.090909   0.181818   0.363636   0.0015026  +
             +   303  -0.090909   0.181818   0.454545   0.0015026  +
             +   304  -0.090909   0.272727  -0.454545   0.0015026  +
             +   305  -0.090909   0.272727  -0.363636   0.0015026  +
             +   306  -0.090909   0.272727  -0.272727   0.0015026  +
             +   307  -0.090909   0.272727  -0.181818   0.0015026  +
             +   308  -0.090909   0.272727  -0.090909   0.0015026  +
             +   309  -0.090909   0.272727   0.000000   0.0015026  +
             +   310  -0.090909   0.272727   0.090909   0.0015026  +
             +   311  -0.090909   0.272727   0.181818   0.0015026  +
             +   312  -0.090909   0.272727   0.363636   0.0015026  +
             +   313  -0.090909   0.272727   0.454545   0.0015026  +
             +   314  -0.090909   0.363636  -0.454545   0.0015026  +
             +   315  -0.090909   0.363636  -0.363636   0.0015026  +
             +   316  -0.090909   0.363636  -0.272727   0.0015026  +
             +   317  -0.090909   0.363636  -0.181818   0.0015026  +
             +   318  -0.090909   0.363636  -0.090909   0.0015026  +
             +   319  -0.090909   0.363636   0.000000   0.0015026  +
             +   320  -0.090909   0.363636   0.090909   0.0015026  +
             +   321  -0.090909   0.363636   0.181818   0.0015026  +
             +   322  -0.090909   0.363636   0.272727   0.0015026  +
             +   323  -0.090909   0.363636   0.363636   0.0015026  +
             +   324  -0.090909   0.454545  -0.181818   0.0015026  +
             +   325  -0.090909   0.454545  -0.090909   0.0015026  +
             +   326  -0.090909   0.454545   0.000000   0.0015026  +
             +   327  -0.090909   0.454545   0.090909   0.0015026  +
             +   328  -0.090909   0.454545   0.181818   0.0015026  +
             +   329  -0.090909   0.454545   0.272727   0.0015026  +
             +   330  -0.090909   0.454545   0.363636   0.0015026  +
             +   331  -0.090909   0.454545   0.454545   0.0015026  +
             +   332   0.000000  -0.454545  -0.272727   0.0015026  +
             +   333   0.000000  -0.454545  -0.181818   0.0015026  +
             +   334   0.000000  -0.454545  -0.090909   0.0015026  +
             +   335   0.000000  -0.454545   0.000000   0.0015026  +
             +   336   0.000000  -0.454545   0.090909   0.0015026  +
             +   337   0.000000  -0.454545   0.181818   0.0015026  +
             +   338   0.000000  -0.454545   0.272727   0.0015026  +
             +   339   0.000000  -0.454545   0.363636   0.0015026  +
             +   340   0.000000  -0.454545   0.454545   0.0015026  +
             +   341   0.000000  -0.363636  -0.454545   0.0015026  +
             +   342   0.000000  -0.363636  -0.363636   0.0015026  +
             +   343   0.000000  -0.363636  -0.272727   0.0015026  +
             +   344   0.000000  -0.363636  -0.181818   0.0015026  +
             +   345   0.000000  -0.363636  -0.090909   0.0015026  +
             +   346   0.000000  -0.363636   0.000000   0.0015026  +
             +   347   0.000000  -0.363636   0.090909   0.0015026  +
             +   348   0.000000  -0.363636   0.181818   0.0015026  +
             +   349   0.000000  -0.363636   0.272727   0.0015026  +
             +   350   0.000000  -0.363636   0.363636   0.0015026  +
             +   351   0.000000  -0.272727  -0.454545   0.0015026  +
             +   352   0.000000  -0.272727  -0.363636   0.0015026  +
             +   353   0.000000  -0.272727  -0.272727   0.0015026  +
             +   354   0.000000  -0.272727  -0.181818   0.0015026  +
             +   355   0.000000  -0.272727  -0.090909   0.0015026  +
             +   356   0.000000  -0.272727   0.000000   0.0015026  +
             +   357   0.000000  -0.272727   0.090909   0.0015026  +
             +   358   0.000000  -0.272727   0.181818   0.0015026  +
             +   359   0.000000  -0.272727   0.272727   0.0015026  +
             +   360   0.000000  -0.272727   0.363636   0.0015026  +
             +   361   0.000000  -0.272727   0.454545   0.0015026  +
             +   362   0.000000  -0.181818  -0.454545   0.0015026  +
             +   363   0.000000  -0.181818  -0.363636   0.0015026  +
             +   364   0.000000  -0.181818  -0.272727   0.0015026  +
             +   365   0.000000  -0.181818  -0.181818   0.0015026  +
             +   366   0.000000  -0.181818  -0.090909   0.0015026  +
             +   367   0.000000  -0.181818   0.000000   0.0015026  +
             +   368   0.000000  -0.181818   0.090909   0.0015026  +
             +   369   0.000000  -0.181818   0.181818   0.0015026  +
             +   370   0.000000  -0.181818   0.272727   0.0015026  +
             +   371   0.000000  -0.181818   0.363636   0.0015026  +
             +   372   0.000000  -0.181818   0.454545   0.0015026  +
             +   373   0.000000  -0.090909  -0.454545   0.0015026  +
             +   374   0.000000  -0.090909  -0.363636   0.0015026  +
             +   375   0.000000  -0.090909  -0.272727   0.0015026  +
             +   376   0.000000  -0.090909  -0.181818   0.0015026  +
             +   377   0.000000  -0.090909  -0.090909   0.0015026  +
             +   378   0.000000  -0.090909   0.000000   0.0015026  +
             +   379   0.000000  -0.090909   0.090909   0.0015026  +
             +   380   0.000000  -0.090909   0.181818   0.0015026  +
             +   381   0.000000  -0.090909   0.272727   0.0015026  +
             +   382   0.000000  -0.090909   0.363636   0.0015026  +
             +   383   0.000000  -0.090909   0.454545   0.0015026  +
             +   384   0.000000   0.000000  -0.454545   0.0015026  +
             +   385   0.000000   0.000000  -0.363636   0.0015026  +
             +   386   0.000000   0.000000  -0.272727   0.0015026  +
             +   387   0.000000   0.000000  -0.181818   0.0015026  +
             +   388   0.000000   0.000000  -0.090909   0.0015026  +
             +   389   0.000000   0.000000   0.000000   0.0007513  +
             +   390   0.000000   0.363636  -0.454545   0.0015026  +
             +   391   0.000000   0.454545   0.363636   0.0015026  +
             +   392   0.000000   0.454545   0.454545   0.0015026  +
             +   393   0.090909  -0.454545   0.272727   0.0015026  +
             +   394   0.090909  -0.454545   0.363636   0.0015026  +
             +   395   0.090909  -0.454545   0.454545   0.0015026  +
             +   396   0.090909  -0.363636  -0.454545   0.0015026  +
             +   397   0.090909  -0.272727  -0.272727   0.0015026  +
             +   398   0.090909   0.181818   0.454545   0.0015026  +
             +   399   0.090909   0.272727  -0.454545   0.0015026  +
             +   400   0.090909   0.272727  -0.363636   0.0015026  +
             +   401   0.090909   0.272727   0.090909   0.0015026  +
             +   402   0.090909   0.272727   0.181818   0.0015026  +
             +   403   0.090909   0.272727   0.272727   0.0015026  +
             +   404   0.090909   0.272727   0.363636   0.0015026  +
             +   405   0.090909   0.272727   0.454545   0.0015026  +
             +   406   0.090909   0.363636  -0.272727   0.0015026  +
             +   407   0.090909   0.363636  -0.181818   0.0015026  +
             +   408   0.090909   0.363636  -0.090909   0.0015026  +
             +   409   0.090909   0.363636   0.000000   0.0015026  +
             +   410   0.090909   0.363636   0.090909   0.0015026  +
             +   411   0.090909   0.363636   0.181818   0.0015026  +
             +   412   0.090909   0.363636   0.272727   0.0015026  +
             +   413   0.090909   0.363636   0.363636   0.0015026  +
             +   414   0.090909   0.454545  -0.454545   0.0015026  +
             +   415   0.090909   0.454545  -0.363636   0.0015026  +
             +   416   0.090909   0.454545  -0.181818   0.0015026  +
             +   417   0.090909   0.454545  -0.090909   0.0015026  +
             +   418   0.090909   0.454545   0.000000   0.0015026  +
             +   419   0.090909   0.454545   0.090909   0.0015026  +
             +   420   0.090909   0.454545   0.181818   0.0015026  +
             +   421   0.090909   0.454545   0.272727   0.0015026  +
             +   422   0.090909   0.454545   0.363636   0.0015026  +
             +   423   0.090909   0.454545   0.454545   0.0015026  +
             +   424   0.181818  -0.454545  -0.090909   0.0015026  +
             +   425   0.181818  -0.454545   0.000000   0.0015026  +
             +   426   0.181818  -0.454545   0.090909   0.0015026  +
             +   427   0.181818  -0.454545   0.181818   0.0015026  +
             +   428   0.181818  -0.454545   0.272727   0.0015026  +
             +   429   0.181818  -0.454545   0.363636   0.0015026  +
             +   430   0.181818  -0.454545   0.454545   0.0015026  +
             +   431   0.181818  -0.363636  -0.272727   0.0015026  +
             +   432   0.181818  -0.363636  -0.181818   0.0015026  +
             +   433   0.181818  -0.363636  -0.090909   0.0015026  +
             +   434   0.181818  -0.363636   0.000000   0.0015026  +
             +   435   0.181818  -0.363636   0.090909   0.0015026  +
             +   436   0.181818  -0.363636   0.181818   0.0015026  +
             +   437   0.181818  -0.363636   0.272727   0.0015026  +
             +   438   0.181818  -0.272727  -0.454545   0.0015026  +
             +   439   0.181818  -0.272727  -0.363636   0.0015026  +
             +   440   0.181818  -0.272727  -0.272727   0.0015026  +
             +   441   0.181818  -0.272727  -0.181818   0.0015026  +
             +   442   0.181818  -0.272727  -0.090909   0.0015026  +
             +   443   0.181818  -0.272727   0.000000   0.0015026  +
             +   444   0.181818  -0.272727   0.090909   0.0015026  +
             +   445   0.181818  -0.272727   0.181818   0.0015026  +
             +   446   0.181818  -0.272727   0.272727   0.0015026  +
             +   447   0.181818  -0.272727   0.363636   0.0015026  +
             +   448   0.181818  -0.272727   0.454545   0.0015026  +
             +   449   0.181818  -0.181818  -0.454545   0.0015026  +
             +   450   0.181818  -0.181818  -0.363636   0.0015026  +
             +   451   0.181818  -0.181818  -0.272727   0.0015026  +
             +   452   0.181818  -0.181818  -0.181818   0.0015026  +
             +   453   0.181818  -0.181818  -0.090909   0.0015026  +
             +   454   0.181818  -0.181818   0.000000   0.0015026  +
             +   455   0.181818  -0.181818   0.090909   0.0015026  +
             +   456   0.181818   0.272727  -0.454545   0.0015026  +
             +   457   0.181818   0.363636  -0.454545   0.0015026  +
             +   458   0.181818   0.363636  -0.363636   0.0015026  +
             +   459   0.181818   0.363636   0.454545   0.0015026  +
             +   460   0.181818   0.454545  -0.454545   0.0015026  +
             +   461   0.181818   0.454545   0.454545   0.0015026  +
             +   462   0.272727  -0.454545  -0.454545   0.0015026  +
             +   463   0.272727  -0.454545  -0.363636   0.0015026  +
             +   464   0.272727  -0.454545   0.181818   0.0015026  +
             +   465   0.272727  -0.454545   0.272727   0.0015026  +
             +   466   0.272727  -0.363636  -0.454545   0.0015026  +
             +   467   0.272727  -0.363636  -0.272727   0.0015026  +
             +   468   0.272727  -0.363636   0.363636   0.0015026  +
             +   469   0.272727  -0.363636   0.454545   0.0015026  +
             +   470   0.272727  -0.181818  -0.454545   0.0015026  +
             +   471   0.272727  -0.181818   0.454545   0.0015026  +
             +   472   0.272727  -0.090909   0.454545   0.0015026  +
             +   473   0.272727   0.000000  -0.363636   0.0015026  +
             +   474   0.272727   0.000000  -0.272727   0.0015026  +
             +   475   0.272727   0.000000  -0.181818   0.0015026  +
             +   476   0.272727   0.000000  -0.090909   0.0015026  +
             +   477   0.272727   0.000000   0.000000   0.0015026  +
             +   478   0.272727   0.000000   0.090909   0.0015026  +
             +   479   0.272727   0.000000   0.181818   0.0015026  +
             +   480   0.272727   0.000000   0.272727   0.0015026  +
             +   481   0.272727   0.000000   0.363636   0.0015026  +
             +   482   0.272727   0.000000   0.454545   0.0015026  +
             +   483   0.272727   0.090909  -0.272727   0.0015026  +
             +   484   0.272727   0.090909  -0.181818   0.0015026  +
             +   485   0.272727   0.090909  -0.090909   0.0015026  +
             +   486   0.272727   0.090909   0.000000   0.0015026  +
             +   487   0.272727   0.090909   0.090909   0.0015026  +
             +   488   0.272727   0.090909   0.181818   0.0015026  +
             +   489   0.272727   0.090909   0.272727   0.0015026  +
             +   490   0.272727   0.090909   0.363636   0.0015026  +
             +   491   0.272727   0.090909   0.454545   0.0015026  +
             +   492   0.272727   0.181818  -0.363636   0.0015026  +
             +   493   0.272727   0.181818  -0.272727   0.0015026  +
             +   494   0.272727   0.181818  -0.181818   0.0015026  +
             +   495   0.272727   0.181818  -0.090909   0.0015026  +
             +   496   0.272727   0.181818   0.000000   0.0015026  +
             +   497   0.272727   0.181818   0.090909   0.0015026  +
             +   498   0.272727   0.181818   0.181818   0.0015026  +
             +   499   0.272727   0.181818   0.272727   0.0015026  +
             +   500   0.272727   0.181818   0.363636   0.0015026  +
             +   501   0.272727   0.181818   0.454545   0.0015026  +
             +   502   0.272727   0.272727  -0.272727   0.0015026  +
             +   503   0.272727   0.272727  -0.181818   0.0015026  +
             +   504   0.272727   0.272727  -0.090909   0.0015026  +
             +   505   0.272727   0.272727   0.000000   0.0015026  +
             +   506   0.272727   0.272727   0.090909   0.0015026  +
             +   507   0.272727   0.272727   0.181818   0.0015026  +
             +   508   0.272727   0.272727   0.272727   0.0015026  +
             +   509   0.272727   0.363636  -0.363636   0.0015026  +
             +   510   0.272727   0.363636  -0.181818   0.0015026  +
             +   511   0.272727   0.363636   0.090909   0.0015026  +
             +   512   0.272727   0.363636   0.181818   0.0015026  +
             +   513   0.272727   0.363636   0.272727   0.0015026  +
             +   514   0.272727   0.363636   0.454545   0.0015026  +
             +   515   0.272727   0.454545  -0.454545   0.0015026  +
             +   516   0.272727   0.454545  -0.272727   0.0015026  +
             +   517   0.272727   0.454545  -0.090909   0.0015026  +
             +   518   0.272727   0.454545   0.000000   0.0015026  +
             +   519   0.363636  -0.454545  -0.272727   0.0015026  +
             +   520   0.363636  -0.454545  -0.181818   0.0015026  +
             +   521   0.363636  -0.454545  -0.090909   0.0015026  +
             +   522   0.363636  -0.454545   0.000000   0.0015026  +
             +   523   0.363636  -0.454545   0.272727   0.0015026  +
             +   524   0.363636  -0.454545   0.363636   0.0015026  +
             +   525   0.363636  -0.454545   0.454545   0.0015026  +
             +   526   0.363636  -0.363636  -0.454545   0.0015026  +
             +   527   0.363636  -0.363636  -0.272727   0.0015026  +
             +   528   0.363636  -0.363636  -0.181818   0.0015026  +
             +   529   0.363636  -0.363636  -0.090909   0.0015026  +
             +   530   0.363636  -0.363636   0.000000   0.0015026  +
             +   531   0.363636  -0.363636   0.090909   0.0015026  +
             +   532   0.363636  -0.363636   0.181818   0.0015026  +
             +   533   0.363636  -0.363636   0.363636   0.0015026  +
             +   534   0.363636  -0.363636   0.454545   0.0015026  +
             +   535   0.363636  -0.272727  -0.454545   0.0015026  +
             +   536   0.363636  -0.272727  -0.363636   0.0015026  +
             +   537   0.363636  -0.272727  -0.272727   0.0015026  +
             +   538   0.363636  -0.272727  -0.181818   0.0015026  +
             +   539   0.363636  -0.272727  -0.090909   0.0015026  +
             +   540   0.363636  -0.272727   0.000000   0.0015026  +
             +   541   0.363636  -0.272727   0.090909   0.0015026  +
             +   542   0.363636  -0.272727   0.181818   0.0015026  +
             +   543   0.363636  -0.272727   0.272727   0.0015026  +
             +   544   0.363636  -0.272727   0.363636   0.0015026  +
             +   545   0.363636  -0.181818  -0.272727   0.0015026  +
             +   546   0.363636  -0.181818  -0.181818   0.0015026  +
             +   547   0.363636  -0.181818  -0.090909   0.0015026  +
             +   548   0.363636  -0.181818   0.000000   0.0015026  +
             +   549   0.363636  -0.181818   0.090909   0.0015026  +
             +   550   0.363636  -0.181818   0.181818   0.0015026  +
             +   551   0.363636  -0.181818   0.363636   0.0015026  +
             +   552   0.363636  -0.090909  -0.454545   0.0015026  +
             +   553   0.363636  -0.090909  -0.363636   0.0015026  +
             +   554   0.363636  -0.090909  -0.181818   0.0015026  +
             +   555   0.363636  -0.090909  -0.090909   0.0015026  +
             +   556   0.363636  -0.090909   0.000000   0.0015026  +
             +   557   0.363636  -0.090909   0.090909   0.0015026  +
             +   558   0.363636  -0.090909   0.181818   0.0015026  +
             +   559   0.363636  -0.090909   0.272727   0.0015026  +
             +   560   0.363636  -0.090909   0.363636   0.0015026  +
             +   561   0.363636  -0.090909   0.454545   0.0015026  +
             +   562   0.363636   0.000000  -0.363636   0.0015026  +
             +   563   0.363636   0.000000  -0.272727   0.0015026  +
             +   564   0.363636   0.000000  -0.181818   0.0015026  +
             +   565   0.363636   0.000000  -0.090909   0.0015026  +
             +   566   0.363636   0.000000   0.000000   0.0015026  +
             +   567   0.363636   0.000000   0.090909   0.0015026  +
             +   568   0.363636   0.000000   0.181818   0.0015026  +
             +   569   0.363636   0.000000   0.272727   0.0015026  +
             +   570   0.363636   0.090909  -0.363636   0.0015026  +
             +   571   0.363636   0.090909  -0.272727   0.0015026  +
             +   572   0.363636   0.090909  -0.181818   0.0015026  +
             +   573   0.363636   0.090909  -0.090909   0.0015026  +
             +   574   0.363636   0.090909   0.000000   0.0015026  +
             +   575   0.363636   0.090909   0.090909   0.0015026  +
             +   576   0.363636   0.090909   0.272727   0.0015026  +
             +   577   0.363636   0.181818  -0.454545   0.0015026  +
             +   578   0.363636   0.181818  -0.272727   0.0015026  +
             +   579   0.363636   0.181818  -0.181818   0.0015026  +
             +   580   0.363636   0.181818  -0.090909   0.0015026  +
             +   581   0.363636   0.181818   0.000000   0.0015026  +
             +   582   0.363636   0.181818   0.090909   0.0015026  +
             +   583   0.363636   0.181818   0.181818   0.0015026  +
             +   584   0.363636   0.181818   0.272727   0.0015026  +
             +   585   0.363636   0.181818   0.363636   0.0015026  +
             +   586   0.363636   0.181818   0.454545   0.0015026  +
             +   587   0.363636   0.272727  -0.272727   0.0015026  +
             +   588   0.363636   0.272727  -0.181818   0.0015026  +
             +   589   0.363636   0.272727  -0.090909   0.0015026  +
             +   590   0.363636   0.272727   0.000000   0.0015026  +
             +   591   0.363636   0.272727   0.181818   0.0015026  +
             +   592   0.363636   0.272727   0.272727   0.0015026  +
             +   593   0.363636   0.272727   0.363636   0.0015026  +
             +   594   0.363636   0.363636  -0.454545   0.0015026  +
             +   595   0.363636   0.363636  -0.272727   0.0015026  +
             +   596   0.363636   0.363636  -0.181818   0.0015026  +
             +   597   0.363636   0.363636   0.272727   0.0015026  +
             +   598   0.363636   0.363636   0.454545   0.0015026  +
             +   599   0.363636   0.454545  -0.454545   0.0015026  +
             +   600   0.363636   0.454545  -0.363636   0.0015026  +
             +   601   0.363636   0.454545  -0.272727   0.0015026  +
             +   602   0.363636   0.454545  -0.181818   0.0015026  +
             +   603   0.363636   0.454545   0.000000   0.0015026  +
             +   604   0.363636   0.454545   0.272727   0.0015026  +
             +   605   0.454545  -0.454545  -0.454545   0.0015026  +
             +   606   0.454545  -0.454545  -0.272727   0.0015026  +
             +   607   0.454545  -0.454545   0.000000   0.0015026  +
             +   608   0.454545  -0.454545   0.090909   0.0015026  +
             +   609   0.454545  -0.454545   0.181818   0.0015026  +
             +   610   0.454545  -0.363636  -0.363636   0.0015026  +
             +   611   0.454545  -0.363636  -0.272727   0.0015026  +
             +   612   0.454545  -0.363636  -0.181818   0.0015026  +
             +   613   0.454545  -0.363636  -0.090909   0.0015026  +
             +   614   0.454545  -0.363636   0.090909   0.0015026  +
             +   615   0.454545  -0.363636   0.181818   0.0015026  +
             +   616   0.454545  -0.363636   0.272727   0.0015026  +
             +   617   0.454545  -0.363636   0.363636   0.0015026  +
             +   618   0.454545  -0.363636   0.454545   0.0015026  +
             +   619   0.454545  -0.272727  -0.363636   0.0015026  +
             +   620   0.454545  -0.272727  -0.181818   0.0015026  +
             +   621   0.454545  -0.272727  -0.090909   0.0015026  +
             +   622   0.454545  -0.272727   0.000000   0.0015026  +
             +   623   0.454545  -0.272727   0.090909   0.0015026  +
             +   624   0.454545  -0.272727   0.454545   0.0015026  +
             +   625   0.454545  -0.181818  -0.181818   0.0015026  +
             +   626   0.454545  -0.181818  -0.090909   0.0015026  +
             +   627   0.454545  -0.181818   0.000000   0.0015026  +
             +   628   0.454545  -0.181818   0.272727   0.0015026  +
             +   629   0.454545  -0.181818   0.363636   0.0015026  +
             +   630   0.454545  -0.181818   0.454545   0.0015026  +
             +   631   0.454545  -0.090909  -0.454545   0.0015026  +
             +   632   0.454545  -0.090909  -0.090909   0.0015026  +
             +   633   0.454545   0.000000  -0.363636   0.0015026  +
             +   634   0.454545   0.000000  -0.181818   0.0015026  +
             +   635   0.454545   0.000000  -0.090909   0.0015026  +
             +   636   0.454545   0.000000   0.000000   0.0015026  +
             +   637   0.454545   0.000000   0.090909   0.0015026  +
             +   638   0.454545   0.000000   0.181818   0.0015026  +
             +   639   0.454545   0.000000   0.272727   0.0015026  +
             +   640   0.454545   0.000000   0.363636   0.0015026  +
             +   641   0.454545   0.090909  -0.454545   0.0015026  +
             +   642   0.454545   0.090909  -0.272727   0.0015026  +
             +   643   0.454545   0.090909  -0.181818   0.0015026  +
             +   644   0.454545   0.090909  -0.090909   0.0015026  +
             +   645   0.454545   0.090909   0.000000   0.0015026  +
             +   646   0.454545   0.090909   0.090909   0.0015026  +
             +   647   0.454545   0.090909   0.181818   0.0015026  +
             +   648   0.454545   0.090909   0.454545   0.0015026  +
             +   649   0.454545   0.181818  -0.454545   0.0015026  +
             +   650   0.454545   0.181818  -0.363636   0.0015026  +
             +   651   0.454545   0.181818  -0.272727   0.0015026  +
             +   652   0.454545   0.181818  -0.181818   0.0015026  +
             +   653   0.454545   0.181818   0.000000   0.0015026  +
             +   654   0.454545   0.181818   0.363636   0.0015026  +
             +   655   0.454545   0.181818   0.454545   0.0015026  +
             +   656   0.454545   0.272727  -0.090909   0.0015026  +
             +   657   0.454545   0.272727   0.000000   0.0015026  +
             +   658   0.454545   0.272727   0.090909   0.0015026  +
             +   659   0.454545   0.272727   0.363636   0.0015026  +
             +   660   0.454545   0.363636  -0.363636   0.0015026  +
             +   661   0.454545   0.363636   0.090909   0.0015026  +
             +   662   0.454545   0.363636   0.181818   0.0015026  +
             +   663   0.454545   0.454545  -0.363636   0.0015026  +
             +   664   0.454545   0.454545  -0.272727   0.0015026  +
             +   665   0.454545   0.454545  -0.181818   0.0015026  +
             +   666   0.454545   0.454545   0.272727   0.0015026  +
             +++++++++++++++++++++++++++++++++++++++++++++++++++++++
 
                           -------------------------------
                               Symmetry and Constraints
                           -------------------------------
 
                      Maximum deviation from symmetry =  0.00000         ANG
 
         There are no symmetry operations specified or generated for this cell
                      Number of ionic constraints     =           3
                      Point group of crystal =     1: C1, 1, 1
 
 
                         Centre of mass is constrained
             Set iprint > 1 for details of linear ionic constraints
 
                         Number of cell constraints= 0
                         Cell constraints are:  1 2 3 4 5 6
 
                         External pressure/stress (GPa)
                          0.00000   0.00000   0.00000
                                    0.00000   0.00000
                                              0.00000
  
+---------------- MEMORY AND SCRATCH DISK ESTIMATES PER PROCESS --------------+
|                                                     Memory          Disk    |
| Model and support data                               18.0 MB         0.1 MB |
| Electronic energy minimisation requirements           2.2 MB         1.2 MB |
|                                               ----------------------------- |
| Approx. total storage required per process           20.1 MB         1.2 MB |
|                                                                             |
| Requirements will fluctuate during execution and may exceed these estimates |
+-----------------------------------------------------------------------------+
 
            Bond                    Length (A)
==================================================
==================================================
 
  
             +-------------------------------------------------+
             |                                                 |
             |       DRYRUN finished ...                       |
             |       No problems found with input files.       |
             |                                                 |
             +-------------------------------------------------+
  
Initialisation time =      2.93 s
Calculation time    =      0.00 s
Finalisation time   =      0.00 s
Total time          =      2.93 s
Peak Memory Use     = 176740 kB
